;
;	File 'topol.top' was generated
;	By user: md_zihang (1042)
;	On host: capybara-T640
;	At date: Sat Mar 29 21:59:11 2025
;
;	This is a standalone topology file
;
;	Created by:
;	                    :-) GROMACS - gmx pdb2gmx, 2024.3 (-:
;	
;	Executable:   /software/gromacs-2024.3/build/bin/gmx_mpi
;	Data prefix:  /software/gromacs-2024.3 (source tree)
;	Working dir:  /home/md_zihang/MDfile
;	Command line:
;	  gmx_mpi pdb2gmx -f 1YRT_clean.pdb -o 1YRT_processed.gro -water spce -ignh
;	Force field was read from the standard GROMACS share directory.
;

; Include forcefield parameters
#include "amber99sb-ildn.ff/forcefield.itp"

; Include chain topologies
#include "topol_Protein_chain_A.itp"
#include "topol_Protein_chain_B.itp"
#include "topol_Ion_chain_B2.itp"

; Include water topology
#include "amber99sb-ildn.ff/spce.itp"

#ifdef POSRES_WATER
; Position restraint for each water oxygen
[ position_restraints ]
;  i funct       fcx        fcy        fcz
   1    1       1000       1000       1000
#endif

; Include topology for ions
#include "amber99sb-ildn.ff/ions.itp"

[ system ]
; Name
BIFUNCTIONAL HEMOLYSIN-ADENYLATE CYCLASE; CALMODULIN in water

[ molecules ]
; Compound        #mols
Protein_chain_A     1
Protein_chain_B     1
Ion_chain_B2        1
SOL         49987
NA               156
CL               143
